file 20474409 1642599537                                        
version 2
run red-0-20220119-13:28:40-350
attr configname red
attr datetime 20220119-13:28:40
attr experiment red
attr inifile omnetpp.ini
attr iterationvars $N=2
attr iterationvarsf N=2-
attr measurement $N=2
attr network red
attr processid 350
attr repetition 0
attr replication #0
attr resultdir results
attr runnumber 0
attr seedset 0
itervar N 2
param red.source[*].packetGenInterval exponential(0.5s)
param red.source[*].packetLength exponential(3200)
param red.queue[*].timeout 0.5s
param red.node[0].pOutputLink1 3/4
param red.node[1].pOutputLink1 2/3
param red.node[2].pOutputLink1 0
param red.node[3].pOutputLink1 0
param red.node[4].pOutputLink1 1/2
param *.numCentralNodes 2

vector 0 red.node[3] "" ETV
vector 1 red.node[3] "" ETV
vector 2 red.node[2] "" ETV
vector 3 red.node[2] "" ETV
0	800 1352971 18 364856 0.304479166667 7163.101710867361 32768 0.005416666667 33.33065387978 208247.35209352 2938317.9814953
1	1353771 931697 18 364856 0.304479166667 7163.101710867361 32768 2 4 85255 236929
0	2285468 1389506 364883 730189 7163.537450828003 14301.204673752124 32768 0.005104166667 38.550319865235 233013.75968742 3892201.9962777
1	3674974 966563 364883 730189 7163.537450828003 14301.204673752124 32768 2 4 85158 236210
0	4641537 1412615 730212 1095729 14301.616027918791 21433.470625886678 32768 0.005208333333 64.895405618792 321099.7038124 8281547.3501824
1	6054152 988038 730212 1095729 14301.616027918791 21433.470625886678 32768 2 4 85266 236736
2	7042190 1363657 46 1179050 1.135553257356 23041.149400138822 32768 0.005 13.733512487229 39387.876635214 95441.83443297
3	8405847 965431 46 1179050 1.135553257356 23041.149400138822 32768 2 4 88621 257913
0	9371278 1435682 1095732 1459709 21433.483125886678 28524.2908083422 32768 0.005208333333 35.769565953972 240964.95466959 3743005.3372533
1	10806960 1011685 1095732 1459709 21433.483125886678 28524.2908083422 32768 2 4 85204 236496
0	11818645 1437085 1459712 1824873 28524.339975008867 35668.666847701143 32768 0.005 52.596970906987 333851.60616636 7930543.5231449
1	13255730 1012239 1459712 1824873 28524.339975008867 35668.666847701143 32768 2 4 85291 237003
0	14267969 1433292 1824876 2187434 35668.724411901622 42855.159583796689 32768 0.005208333333 55.830912080994 240114.48458447 4887073.7529476
1	15701261 1012021 1824876 2187434 35668.724411901622 42855.159583796689 32768 2 4 85061 235717
2	16713282 1409998 1179134 2356916 23042.443879723579 46161.428992139162 32768 0.005104166667 11.016796163695 38615.374097643 91580.945452383
3	18123280 1012179 1179134 2356916 23042.443879723579 46161.428992139162 32768 2 4 88453 257035
0	19135459 757650 2187444 2380017 42855.474271296689 46617.21893704572 17255 0.005 31.885729849118 139594.71723508 2119225.8453829
1	19893109 532933 2187444 2380017 42855.474271296689 46617.21893704572 17255 2 4 44902 124724
2	20426042 28170 2356946 2380014 46162.181387972495 46617.096460155367 654 0.0059375 7.015041194984 823.78251892699 2005.6986052765
3	20454212 20196 2356946 2380014 46162.181387972495 46617.096460155367 654 2 4 1777 5205

